n -t * -s 0  -x 182.1131998124128 -y 221.23939777782158 -Z 0 -z 40  -v circle -c black
n -t * -s 1  -x 463.19806480929168 -y 375.90019981185912 -Z 0 -z 40  -v circle -c black
n -t * -s 2  -x 193.3227973959049 -y 141.00466637918942 -Z 0 -z 40  -v circle -c black
n -t * -s 3  -x 331.78479379591755 -y 245.62346238904794 -Z 0 -z 40  -v circle -c black
n -t * -s 4  -x 241.91546591087965 -y 298.58845132337348 -Z 0 -z 40  -v circle -c black
n -t * -s 5  -x 470.12673992203861 -y 336.09429576252319 -Z 0 -z 40  -v circle -c black
n -t * -s 6  -x 421.03610090959637 -y 282.99839006876499 -Z 0 -z 40  -v circle -c black
n -t * -s 7  -x 442.42735716627323 -y 301.27351484320758 -Z 0 -z 40  -v circle -c black
n -t * -s 8  -x 379.95496223678578 -y 322.44025092685604 -Z 0 -z 40  -v circle -c black
n -t * -s 9  -x 66.62165958742689 -y 168.18614870691027 -Z 0 -z 40  -v circle -c black
n -t * -s 10  -x 380.75164630112778 -y 234.33550644402183 -Z 0 -z 40  -v circle -c black
n -t * -s 11  -x 96.071005843612838 -y 132.31617088071823 -Z 0 -z 40  -v circle -c black
n -t * -s 12  -x 297.35499028924619 -y 116.2574330886162 -Z 0 -z 40  -v circle -c black
n -t * -s 13  -x 423.34740046567629 -y 159.8077012970148 -Z 0 -z 40  -v circle -c black
n -t * -s 14  -x 360.04462365994442 -y 215.99188214912633 -Z 0 -z 40  -v circle -c black
n -t * -s 15  -x 219.45410045769722 -y 292.05311401377111 -Z 0 -z 40  -v circle -c black
n -t * -s 16  -x 170.8590368138901 -y 102.2653848409026 -Z 0 -z 40  -v circle -c black
n -t * -s 17  -x 467.90377631220207 -y 47.014783344704092 -Z 0 -z 40  -v circle -c black
n -t * -s 18  -x 221.82959305207692 -y 231.9763410054037 -Z 0 -z 40  -v circle -c black
n -t * -s 19  -x 32.954097275135155 -y 287.61032255720829 -Z 0 -z 40  -v circle -c black
n -t * -s 20  -x 333.36402374942043 -y 279.31772520733892 -Z 0 -z 40  -v circle -c black
n -t * -s 21  -x 116.25944968138796 -y 378.05663606992766 -Z 0 -z 40  -v circle -c black
n -t * -s 22  -x 497.35303409274343 -y 9.9551973910793645 -Z 0 -z 40  -v circle -c black
n -t * -s 23  -x 146.25318983860927 -y 61.889294004947551 -Z 0 -z 40  -v circle -c black
n -t * -s 24  -x 216.70542644183405 -y 134.48176632378332 -Z 0 -z 40  -v circle -c black
V -t * -v 1.0a5 -a 0
W -t * -x 500 -y 500
A -t * -n 1 -p 0 -o 0x7fffffff -c 30 -a 1
A -t * -h 1 -m 1073741823 -s 0
n -t 10.000000 -s 0 -x 159.484867 -y 217.446413 -U 1.584200 -V -1.415515 -T 107.477680
n -t 10.000000 -s 1 -x 412.478065 -y 204.349420 -U -0.521262 -V 0.164535 -T 484.105567
n -t 10.000000 -s 2 -x 443.292542 -y 243.219045 -U -5.120693 -V -1.860018 -T 18.090709
n -t 10.000000 -s 3 -x 162.195445 -y 188.824773 -U -7.405195 -V -0.821836 -T 15.073369
n -t 10.000000 -s 4 -x 35.607910 -y 359.999465 -U 5.626901 -V -1.274965 -T 66.555567
n -t 10.000000 -s 5 -x 331.350379 -y 261.795189 -U -7.793272 -V 5.735891 -T 14.770768
n -t 10.000000 -s 6 -x 214.251073 -y 174.937343 -U -3.860445 -V -3.967133 -T 37.985159
n -t 10.000000 -s 7 -x 153.610660 -y 358.968893 -U -3.509718 -V -4.830798 -T 31.905021
n -t 10.000000 -s 8 -x 348.854120 -y 168.479704 -U -8.997894 -V 1.086056 -T 28.539670
n -t 10.000000 -s 9 -x 85.343468 -y 259.681878 -U 6.487355 -V -3.274580 -T 55.751626
n -t 10.000000 -s 10 -x 225.960837 -y 46.365133 -U 2.235468 -V 5.397171 -T 48.652825
n -t 10.000000 -s 11 -x 74.164068 -y 398.869551 -U -0.156261 -V -1.336954 -T 272.945613
n -t 10.000000 -s 12 -x 353.998433 -y 253.419008 -U -7.171765 -V 2.594492 -T 20.451457
n -t 10.000000 -s 13 -x 266.013729 -y 336.314224 -U 2.713653 -V -6.588972 -T 31.893639
n -t 10.000000 -s 14 -x 390.879041 -y 46.205625 -U -0.598142 -V 2.291530 -T 115.463443
n -t 10.000000 -s 15 -x 213.024240 -y 88.265282 -U -4.469561 -V -1.786373 -T 43.073141
n -t 10.000000 -s 16 -x 41.528788 -y 105.971794 -U 0.809435 -V 0.992156 -T 233.217342
n -t 10.000000 -s 17 -x 356.515311 -y 452.655055 -U 2.250211 -V -8.180879 -T 18.497673
n -t 10.000000 -s 18 -x 43.650728 -y 361.322625 -U 3.824630 -V 1.593337 -T 26.123642
n -t 10.000000 -s 19 -x 343.683834 -y 447.164152 -U 0.727084 -V -2.473727 -T 49.455069
n -t 10.000000 -s 20 -x 99.396481 -y 54.888016 -U 2.567025 -V 3.991558 -T 55.811954
n -t 10.000000 -s 21 -x 84.596849 -y 291.263606 -U 3.307677 -V -1.208817 -T 43.621689
n -t 10.000000 -s 22 -x 227.112206 -y 423.367170 -U 0.399638 -V -2.105757 -T 119.166074
n -t 10.000000 -s 23 -x 169.038409 -y 171.502774 -U -0.770040 -V 4.770494 -T 53.545655
n -t 10.000000 -s 24 -x 302.551820 -y 463.043145 -U 0.454570 -V -0.808978 -T 233.637009
n -t 24.770768 -s 5 -x 216.237762 -y 346.518714 -U 0.000000 -V 0.000000 -T 0.000000
n -t 25.073369 -s 3 -x 50.574203 -y 176.436941 -U 0.000000 -V 0.000000 -T 0.000000
n -t 28.090709 -s 2 -x 350.655581 -y 209.570008 -U 0.000000 -V 0.000000 -T 0.000000
n -t 28.497673 -s 17 -x 398.138985 -y 301.327833 -U 0.000000 -V -0.000000 -T 0.000000
n -t 30.451457 -s 12 -x 207.325389 -y 306.480149 -U -0.000000 -V 0.000000 -T 0.000000
n -t 34.770768 -s 5 -x 216.237762 -y 346.518714 -U -0.084261 -V -0.153740 -T 1378.081176
n -t 35.073369 -s 3 -x 50.574203 -y 176.436941 -U 0.313248 -V -7.099050 -T 23.190701
n -t 36.123642 -s 18 -x 143.564004 -y 402.946390 -U 0.000000 -V 0.000000 -T 0.000000
n -t 38.090709 -s 2 -x 350.655581 -y 209.570008 -U -1.965776 -V 4.907896 -T 54.188486
n -t 38.497673 -s 17 -x 398.138985 -y 301.327833 -U 3.949815 -V -8.121684 -T 20.674383
n -t 38.539670 -s 8 -x 92.057207 -y 199.475395 -U 0.000000 -V 0.000000 -T 0.000000
n -t 40.451457 -s 12 -x 207.325389 -y 306.480149 -U -0.087064 -V -0.193138 -T 1504.397529
n -t 41.893639 -s 13 -x 352.561988 -y 126.167941 -U -0.000000 -V -0.000000 -T 0.000000
n -t 41.905021 -s 7 -x 41.633050 -y 204.842183 -U 0.000000 -V 0.000000 -T 0.000000
n -t 46.123642 -s 18 -x 143.564004 -y 402.946390 -U 0.081909 -V -1.002631 -T 356.103724
n -t 47.985159 -s 6 -x 67.611473 -y 24.245155 -U 0.000000 -V 0.000000 -T 0.000000
n -t 48.539670 -s 8 -x 92.057207 -y 199.475395 -U 4.453340 -V 2.385765 -T 29.370929
n -t 51.893639 -s 13 -x 352.561988 -y 126.167941 -U -8.343641 -V 3.910114 -T 35.264164
n -t 51.905021 -s 7 -x 41.633050 -y 204.842183 -U 5.322884 -V -5.980770 -T 8.297431
n -t 53.073141 -s 15 -x 20.506204 -y 11.320592 -U -0.000000 -V -0.000000 -T 0.000000
n -t 53.621689 -s 21 -x 228.883289 -y 238.532963 -U 0.000000 -V 0.000000 -T 0.000000
n -t 57.985159 -s 6 -x 67.611473 -y 24.245155 -U 5.508642 -V 2.191239 -T 36.004914
n -t 58.264070 -s 3 -x 57.838644 -y 11.804986 -U 0.000000 -V -0.000000 -T 0.000000
n -t 58.652825 -s 10 -x 334.722657 -y 308.952734 -U 0.000000 -V 0.000000 -T 0.000000
n -t 59.172056 -s 17 -x 479.798972 -y 133.417028 -U 0.000000 -V 0.000000 -T 0.000000
n -t 59.455069 -s 19 -x 379.641813 -y 324.825815 -U 0.000000 -V -0.000000 -T 0.000000
n -t 60.202452 -s 7 -x 85.799314 -y 155.217153 -U 0.000000 -V -0.000000 -T 0.000000
n -t 63.073141 -s 15 -x 20.506204 -y 11.320592 -U 2.149567 -V 3.506811 -T 131.087333
n -t 63.545655 -s 23 -x 127.806117 -y 426.941980 -U 0.000000 -V 0.000000 -T 0.000000
n -t 63.621689 -s 21 -x 228.883289 -y 238.532963 -U 0.986986 -V 0.605274 -T 54.170610
n -t 65.751626 -s 9 -x 447.024031 -y 77.118699 -U 0.000000 -V 0.000000 -T 0.000000
n -t 65.811954 -s 20 -x 242.667189 -y 277.664652 -U 0.000000 -V 0.000000 -T 0.000000
n -t 68.264070 -s 3 -x 57.838644 -y 11.804986 -U 3.307050 -V 5.408782 -T 13.440771
n -t 68.652825 -s 10 -x 334.722657 -y 308.952734 -U -1.546192 -V -1.353173 -T 90.026037
n -t 69.172056 -s 17 -x 479.798972 -y 133.417028 -U 0.098956 -V -1.710536 -T 73.693737
n -t 69.455069 -s 19 -x 379.641813 -y 324.825815 -U -0.721886 -V 0.463802 -T 291.149233
n -t 70.202452 -s 7 -x 85.799314 -y 155.217153 -U 2.795597 -V -5.682906 -T 23.868714
n -t 73.545655 -s 23 -x 127.806117 -y 426.941980 -U 2.560465 -V -0.021158 -T 101.401451
n -t 75.751626 -s 9 -x 447.024031 -y 77.118699 -U -0.186660 -V 0.620806 -T 663.177227
n -t 75.811954 -s 20 -x 242.667189 -y 277.664652 -U 8.134254 -V -5.657913 -T 10.721617
n -t 76.555567 -s 4 -x 410.109505 -y 275.143429 -U 0.000000 -V -0.000000 -T 0.000000
n -t 77.910599 -s 8 -x 222.855930 -y 269.547530 -U 0.000000 -V 0.000000 -T 0.000000
n -t 81.704841 -s 3 -x 102.287948 -y 84.503186 -U 0.000000 -V 0.000000 -T 0.000000
n -t 86.533571 -s 20 -x 329.879541 -y 217.002674 -U 0.000000 -V 0.000000 -T 0.000000
n -t 86.555567 -s 4 -x 410.109505 -y 275.143429 -U -7.907136 -V -4.008318 -T 46.991611
n -t 87.157802 -s 13 -x 58.330483 -y 264.054851 -U 0.000000 -V 0.000000 -T 0.000000
n -t 87.910599 -s 8 -x 222.855930 -y 269.547530 -U -6.639660 -V -3.475920 -T 27.581897
n -t 91.704841 -s 3 -x 102.287948 -y 84.503186 -U 2.421818 -V -0.017074 -T 160.292200
n -t 92.279195 -s 2 -x 244.133177 -y 475.521440 -U -0.000000 -V 0.000000 -T 0.000000
n -t 93.990073 -s 6 -x 265.949645 -y 103.140540 -U 0.000000 -V 0.000000 -T 0.000000
n -t 94.071166 -s 7 -x 152.526629 -y 19.573503 -U 0.000000 -V -0.000000 -T 0.000000
n -t 96.533571 -s 20 -x 329.879541 -y 217.002674 -U -3.624730 -V 5.431473 -T 36.313473
n -t 97.157802 -s 13 -x 58.330483 -y 264.054851 -U 1.367732 -V -8.447167 -T 20.281989
