M 1.00000 0 (0.00, 0.00, 0.00), (10.00, 10.00), 50.00
M 1.00000 1 (0.00, 0.00, 0.00), (10.00, 100.00), 50.00
M 1.00000 4 (0.00, 0.00, 0.00), (50.00, 50.00), 50.00
M 1.00000 2 (0.00, 0.00, 0.00), (100.00, 100.00), 50.00
M 1.00000 3 (0.00, 0.00, 0.00), (100.00, 10.00), 50.00
s 1.000000000 _0_ AGT  --- 0 tcp 40 [0 0 0 0] ------- [0:0 2:0 32 0] [0 0] 0 0
r 1.000000000 _0_ RTR  --- 0 tcp 40 [0 0 0 0] ------- [0:0 2:0 32 0] [0 0] 0 0
s 1.000000000 _1_ AGT  --- 1 tcp 40 [0 0 0 0] ------- [1:0 2:1 32 0] [0 0] 0 0
r 1.000000000 _1_ RTR  --- 1 tcp 40 [0 0 0 0] ------- [1:0 2:1 32 0] [0 0] 0 0
s 1.000000000 _0_ RTR  --- 0 AODV 48 [0 0 0 0] ------- [0:255 -1:255 30 0] [0x2 1 1 [2 0] [0 4]] (REQUEST)
s 1.000000000 _1_ RTR  --- 0 AODV 48 [0 0 0 0] ------- [1:255 -1:255 30 0] [0x2 1 1 [2 0] [1 4]] (REQUEST)
s 1.000375000 _1_ MAC  --- 0 AODV 106 [0 ffffffff 1 800] ------- [1:255 -1:255 30 0] [0x2 1 1 [2 0] [1 4]] (REQUEST)
r 1.001223000 _0_ MAC  --- 0 AODV 48 [0 ffffffff 1 800] ------- [1:255 -1:255 30 0] [0x2 1 1 [2 0] [1 4]] (REQUEST)
r 1.001223000 _2_ MAC  --- 0 AODV 48 [0 ffffffff 1 800] ------- [1:255 -1:255 30 0] [0x2 1 1 [2 0] [1 4]] (REQUEST)
r 1.001223000 _4_ MAC  --- 0 AODV 48 [0 ffffffff 1 800] ------- [1:255 -1:255 30 0] [0x2 1 1 [2 0] [1 4]] (REQUEST)
r 1.001223000 _3_ MAC  --- 0 AODV 48 [0 ffffffff 1 800] ------- [1:255 -1:255 30 0] [0x2 1 1 [2 0] [1 4]] (REQUEST)
r 1.001248000 _0_ RTR  --- 0 AODV 48 [0 ffffffff 1 800] ------- [1:255 -1:255 30 0] [0x2 1 1 [2 0] [1 4]] (REQUEST)
r 1.001248000 _2_ RTR  --- 0 AODV 48 [0 ffffffff 1 800] ------- [1:255 -1:255 30 0] [0x2 1 1 [2 0] [1 4]] (REQUEST)
r 1.001248000 _4_ RTR  --- 0 AODV 48 [0 ffffffff 1 800] ------- [1:255 -1:255 30 0] [0x2 1 1 [2 0] [1 4]] (REQUEST)
s 1.001248000 _2_ RTR  --- 0 AODV 44 [0 0 0 0] ------- [2:255 1:255 30 1] [0x4 1 [2 4] 10.000000] (REPLY)
r 1.001248000 _3_ RTR  --- 0 AODV 48 [0 ffffffff 1 800] ------- [1:255 -1:255 30 0] [0x2 1 1 [2 0] [1 4]] (REQUEST)
s 1.001533000 _0_ MAC  --- 0 AODV 106 [0 ffffffff 0 800] ------- [0:255 -1:255 30 0] [0x2 1 1 [2 0] [0 4]] (REQUEST)
r 1.002381000 _4_ MAC  --- 0 AODV 48 [0 ffffffff 0 800] ------- [0:255 -1:255 30 0] [0x2 1 1 [2 0] [0 4]] (REQUEST)
r 1.002381000 _1_ MAC  --- 0 AODV 48 [0 ffffffff 0 800] ------- [0:255 -1:255 30 0] [0x2 1 1 [2 0] [0 4]] (REQUEST)
r 1.002406000 _4_ RTR  --- 0 AODV 48 [0 ffffffff 0 800] ------- [0:255 -1:255 30 0] [0x2 1 1 [2 0] [0 4]] (REQUEST)
r 1.002406000 _1_ RTR  --- 0 AODV 48 [0 ffffffff 0 800] ------- [0:255 -1:255 30 0] [0x2 1 1 [2 0] [0 4]] (REQUEST)
s 1.002889454 _3_ RTR  --- 0 AODV 48 [0 ffffffff 1 800] ------- [3:255 -1:255 29 0] [0x2 2 1 [2 0] [1 4]] (REQUEST)
s 1.003115000 _2_ MAC  --- 0 ARP 86 [0 ffffffff 2 806] ------- [REQUEST 2/2 0/1]
r 1.003803000 _4_ MAC  --- 0 ARP 28 [0 ffffffff 2 806] ------- [REQUEST 2/2 0/1]
r 1.003803000 _0_ MAC  --- 0 ARP 28 [0 ffffffff 2 806] ------- [REQUEST 2/2 0/1]
r 1.003803000 _1_ MAC  --- 0 ARP 28 [0 ffffffff 2 806] ------- [REQUEST 2/2 0/1]
r 1.003803000 _3_ MAC  --- 0 ARP 28 [0 ffffffff 2 806] ------- [REQUEST 2/2 0/1]
s 1.003933000 _3_ MAC  --- 0 AODV 106 [0 ffffffff 3 800] ------- [3:255 -1:255 29 0] [0x2 2 1 [2 0] [1 4]] (REQUEST)
s 1.004338791 _0_ RTR  --- 0 AODV 48 [0 ffffffff 1 800] ------- [0:255 -1:255 29 0] [0x2 2 1 [2 0] [1 4]] (REQUEST)
r 1.004781001 _2_ MAC  --- 0 AODV 48 [0 ffffffff 3 800] ------- [3:255 -1:255 29 0] [0x2 2 1 [2 0] [1 4]] (REQUEST)
r 1.004781001 _4_ MAC  --- 0 AODV 48 [0 ffffffff 3 800] ------- [3:255 -1:255 29 0] [0x2 2 1 [2 0] [1 4]] (REQUEST)
r 1.004781001 _0_ MAC  --- 0 AODV 48 [0 ffffffff 3 800] ------- [3:255 -1:255 29 0] [0x2 2 1 [2 0] [1 4]] (REQUEST)
r 1.004781001 _1_ MAC  --- 0 AODV 48 [0 ffffffff 3 800] ------- [3:255 -1:255 29 0] [0x2 2 1 [2 0] [1 4]] (REQUEST)
r 1.004806001 _2_ RTR  --- 0 AODV 48 [0 ffffffff 3 800] ------- [3:255 -1:255 29 0] [0x2 2 1 [2 0] [1 4]] (REQUEST)
r 1.004806001 _4_ RTR  --- 0 AODV 48 [0 ffffffff 3 800] ------- [3:255 -1:255 29 0] [0x2 2 1 [2 0] [1 4]] (REQUEST)
r 1.004806001 _0_ RTR  --- 0 AODV 48 [0 ffffffff 3 800] ------- [3:255 -1:255 29 0] [0x2 2 1 [2 0] [1 4]] (REQUEST)
r 1.004806001 _1_ RTR  --- 0 AODV 48 [0 ffffffff 3 800] ------- [3:255 -1:255 29 0] [0x2 2 1 [2 0] [1 4]] (REQUEST)
s 1.004911001 _0_ MAC  --- 0 AODV 106 [0 ffffffff 0 800] ------- [0:255 -1:255 29 0] [0x2 2 1 [2 0] [1 4]] (REQUEST)
r 1.005759001 _2_ MAC  --- 0 AODV 48 [0 ffffffff 0 800] ------- [0:255 -1:255 29 0] [0x2 2 1 [2 0] [1 4]] (REQUEST)
r 1.005759001 _1_ MAC  --- 0 AODV 48 [0 ffffffff 0 800] ------- [0:255 -1:255 29 0] [0x2 2 1 [2 0] [1 4]] (REQUEST)
r 1.005759001 _3_ MAC  --- 0 AODV 48 [0 ffffffff 0 800] ------- [0:255 -1:255 29 0] [0x2 2 1 [2 0] [1 4]] (REQUEST)
r 1.005784001 _2_ RTR  --- 0 AODV 48 [0 ffffffff 0 800] ------- [0:255 -1:255 29 0] [0x2 2 1 [2 0] [1 4]] (REQUEST)
r 1.005784001 _1_ RTR  --- 0 AODV 48 [0 ffffffff 0 800] ------- [0:255 -1:255 29 0] [0x2 2 1 [2 0] [1 4]] (REQUEST)
r 1.005784001 _3_ RTR  --- 0 AODV 48 [0 ffffffff 0 800] ------- [0:255 -1:255 29 0] [0x2 2 1 [2 0] [1 4]] (REQUEST)
s 1.005893410 _1_ RTR  --- 0 AODV 48 [0 ffffffff 0 800] ------- [1:255 -1:255 29 0] [0x2 2 1 [2 0] [0 4]] (REQUEST)
s 1.006209001 _1_ MAC  --- 0 RTS 44 [52e 2 1 0] 
s 1.007869001 _1_ MAC  --- 0 RTS 44 [52e 2 1 0] 
r 1.008221002 _2_ MAC  --- 0 RTS 44 [52e 2 1 0] 
s 1.008231002 _2_ MAC  --- 0 CTS 38 [3f4 1 0 0] 
r 1.008535003 _1_ MAC  --- 0 CTS 38 [3f4 1 0 0] 
s 1.008545003 _1_ MAC  --- 0 ARP 86 [13a 2 1 806] ------- [REPLY 1/1 2/2]
r 1.009233004 _2_ MAC  --- 0 ARP 28 [13a 2 1 806] ------- [REPLY 1/1 2/2]
s 1.009243004 _2_ MAC  --- 0 ACK 38 [0 1 0 0] 
s 1.009611235 _4_ RTR  --- 0 AODV 48 [0 ffffffff 1 800] ------- [4:255 -1:255 29 0] [0x2 2 1 [2 0] [1 4]] (REQUEST)
s 1.009717004 _2_ MAC  --- 0 RTS 44 [5ae 1 2 0] 
r 1.010069005 _1_ MAC  --- 0 RTS 44 [5ae 1 2 0] 
s 1.010079005 _1_ MAC  --- 0 CTS 38 [474 2 0 0] 
r 1.010383006 _2_ MAC  --- 0 CTS 38 [474 2 0 0] 
s 1.010393006 _2_ MAC  --- 0 AODV 102 [13a 1 2 800] ------- [2:255 1:255 30 1] [0x4 1 [2 4] 10.000000] (REPLY)
s 1.010476286 _4_ RTR  --- 0 AODV 48 [0 ffffffff 0 800] ------- [4:255 -1:255 29 0] [0x2 2 1 [2 0] [0 4]] (REQUEST)
r 1.011209008 _1_ MAC  --- 0 AODV 44 [13a 1 2 800] ------- [2:255 1:255 30 1] [0x4 1 [2 4] 10.000000] (REPLY)
s 1.011219008 _1_ MAC  --- 0 ACK 38 [0 2 0 0] 
r 1.011234008 _1_ RTR  --- 0 AODV 44 [13a 1 2 800] ------- [2:255 1:255 30 1] [0x4 1 [2 4] 10.000000] (REPLY)
s 1.011234008 _1_ RTR  --- 1 tcp 40 [0 0 0 0] ------- [1:0 2:1 30 2] [0 0] 0 0
s 1.011673009 _4_ MAC  --- 0 AODV 106 [0 ffffffff 4 800] ------- [4:255 -1:255 29 0] [0x2 2 1 [2 0] [1 4]] (REQUEST)
r 1.012521009 _2_ MAC  --- 0 AODV 48 [0 ffffffff 4 800] ------- [4:255 -1:255 29 0] [0x2 2 1 [2 0] [1 4]] (REQUEST)
r 1.012521010 _1_ MAC  --- 0 AODV 48 [0 ffffffff 4 800] ------- [4:255 -1:255 29 0] [0x2 2 1 [2 0] [1 4]] (REQUEST)
r 1.012521010 _3_ MAC  --- 0 AODV 48 [0 ffffffff 4 800] ------- [4:255 -1:255 29 0] [0x2 2 1 [2 0] [1 4]] (REQUEST)
r 1.012546009 _2_ RTR  --- 0 AODV 48 [0 ffffffff 4 800] ------- [4:255 -1:255 29 0] [0x2 2 1 [2 0] [1 4]] (REQUEST)
r 1.012546010 _1_ RTR  --- 0 AODV 48 [0 ffffffff 4 800] ------- [4:255 -1:255 29 0] [0x2 2 1 [2 0] [1 4]] (REQUEST)
r 1.012546010 _3_ RTR  --- 0 AODV 48 [0 ffffffff 4 800] ------- [4:255 -1:255 29 0] [0x2 2 1 [2 0] [1 4]] (REQUEST)
s 1.012751009 _2_ MAC  --- 0 RTS 44 [5ae 1 2 0] 
r 1.013103010 _1_ MAC  --- 0 RTS 44 [5ae 1 2 0] 
s 1.013113010 _1_ MAC  --- 0 CTS 38 [474 2 0 0] 
s 1.014457010 _1_ MAC  --- 0 RTS 44 [52e 2 1 0] 
s 1.015443012 _2_ MAC  --- 0 RTS 44 [5ae 1 2 0] 
r 1.015795014 _1_ MAC  --- 0 RTS 44 [5ae 1 2 0] 
s 1.015805014 _1_ MAC  --- 0 CTS 38 [474 2 0 0] 
r 1.016109015 _2_ MAC  --- 0 CTS 38 [474 2 0 0] 
s 1.016119015 _2_ MAC  --- 0 AODV 102 [13a 1 2 800] ------- [2:255 1:255 30 1] [0x4 1 [2 4] 10.000000] (REPLY)
s 1.017389015 _4_ MAC  --- 0 AODV 106 [0 ffffffff 4 800] ------- [4:255 -1:255 29 0] [0x2 2 1 [2 0] [0 4]] (REQUEST)
r 1.018237015 _0_ MAC  --- 0 AODV 48 [0 ffffffff 4 800] ------- [4:255 -1:255 29 0] [0x2 2 1 [2 0] [0 4]] (REQUEST)
r 1.018237015 _2_ MAC  --- 0 AODV 48 [0 ffffffff 4 800] ------- [4:255 -1:255 29 0] [0x2 2 1 [2 0] [0 4]] (REQUEST)
r 1.018237017 _1_ MAC  --- 0 AODV 48 [0 ffffffff 4 800] ------- [4:255 -1:255 29 0] [0x2 2 1 [2 0] [0 4]] (REQUEST)
r 1.018262015 _0_ RTR  --- 0 AODV 48 [0 ffffffff 4 800] ------- [4:255 -1:255 29 0] [0x2 2 1 [2 0] [0 4]] (REQUEST)
r 1.018262015 _2_ RTR  --- 0 AODV 48 [0 ffffffff 4 800] ------- [4:255 -1:255 29 0] [0x2 2 1 [2 0] [0 4]] (REQUEST)
s 1.018262015 _2_ RTR  --- 0 AODV 44 [0 0 0 0] ------- [2:255 0:255 30 4] [0x4 1 [2 6] 10.000000] (REPLY)
r 1.018262017 _1_ RTR  --- 0 AODV 48 [0 ffffffff 4 800] ------- [4:255 -1:255 29 0] [0x2 2 1 [2 0] [0 4]] (REQUEST)
s 1.019407015 _2_ MAC  --- 0 RTS 44 [5ae 1 2 0] 
r 1.019759018 _1_ MAC  --- 0 RTS 44 [5ae 1 2 0] 
s 1.019769018 _1_ MAC  --- 0 CTS 38 [474 2 0 0] 
r 1.020073020 _2_ MAC  --- 0 CTS 38 [474 2 0 0] 
s 1.020083020 _2_ MAC  --- 0 AODV 102 [13a 1 2 800] ------- [2:255 1:255 30 1] [0x4 1 [2 4] 10.000000] (REPLY)
s 1.023233022 _1_ MAC  --- 0 RTS 44 [52e 2 1 0] 
r 1.023585025 _2_ MAC  --- 0 RTS 44 [52e 2 1 0] 
s 1.023595025 _2_ MAC  --- 0 CTS 38 [3f4 1 0 0] 
r 1.023899027 _1_ MAC  --- 0 CTS 38 [3f4 1 0 0] 
s 1.023909027 _1_ MAC  --- 0 ARP 86 [13a 2 1 806] ------- [REPLY 1/1 2/2]
D 1.024597030 _2_ MAC  DUP 0 ARP 28 [13a 2 1 806] ------- [REPLY 1/1 2/2]
s 1.024607030 _2_ MAC  --- 0 ACK 38 [0 1 0 0] 
s 1.029165033 _1_ MAC  --- 0 RTS 44 [52e 2 1 0] 
s 1.033291036 _2_ MAC  --- 0 RTS 44 [5ae 1 2 0] 
r 1.033643040 _1_ MAC  --- 0 RTS 44 [5ae 1 2 0] 
s 1.033653040 _1_ MAC  --- 0 CTS 38 [474 2 0 0] 
s 1.045131043 _2_ MAC  --- 0 RTS 44 [5ae 1 2 0] 
s 1.049077048 _1_ MAC  --- 0 RTS 44 [52e 2 1 0] 
s 1.052723054 _2_ MAC  --- 0 RTS 44 [5ae 1 2 0] 
r 1.053075060 _1_ MAC  --- 0 RTS 44 [5ae 1 2 0] 
s 1.053085060 _1_ MAC  --- 0 CTS 38 [474 2 0 0] 
s 1.054809060 _1_ MAC  --- 0 RTS 44 [52e 2 1 0] 
r 1.055161066 _2_ MAC  --- 0 RTS 44 [52e 2 1 0] 
s 1.055171066 _2_ MAC  --- 0 CTS 38 [3f4 1 0 0] 
s 1.066627066 _2_ MAC  --- 0 RTS 44 [5ae 1 2 0] 
s 1.069713074 _1_ MAC  --- 0 RTS 44 [52e 2 1 0] 
r 1.070065081 _2_ MAC  --- 0 RTS 44 [52e 2 1 0] 
s 1.070075081 _2_ MAC  --- 0 CTS 38 [3f4 1 0 0] 
r 1.070379089 _1_ MAC  --- 0 CTS 38 [3f4 1 0 0] 
s 1.070389089 _1_ MAC  --- 0 ARP 86 [13a 2 1 806] ------- [REPLY 1/1 2/2]
D 1.071077097 _2_ MAC  DUP 0 ARP 28 [13a 2 1 806] ------- [REPLY 1/1 2/2]
s 1.071087097 _2_ MAC  --- 0 ACK 38 [0 1 0 0] 
r 1.071391105 _1_ MAC  --- 0 ACK 38 [0 1 0 0] 
s 1.071661105 _1_ MAC  --- 0 AODV 106 [0 ffffffff 1 800] ------- [1:255 -1:255 29 0] [0x2 2 1 [2 0] [0 4]] (REQUEST)
r 1.072509113 _0_ MAC  --- 0 AODV 48 [0 ffffffff 1 800] ------- [1:255 -1:255 29 0] [0x2 2 1 [2 0] [0 4]] (REQUEST)
r 1.072509113 _4_ MAC  --- 0 AODV 48 [0 ffffffff 1 800] ------- [1:255 -1:255 29 0] [0x2 2 1 [2 0] [0 4]] (REQUEST)
r 1.072509113 _2_ MAC  --- 0 AODV 48 [0 ffffffff 1 800] ------- [1:255 -1:255 29 0] [0x2 2 1 [2 0] [0 4]] (REQUEST)
r 1.072509120 _3_ MAC  --- 0 AODV 48 [0 ffffffff 1 800] ------- [1:255 -1:255 29 0] [0x2 2 1 [2 0] [0 4]] (REQUEST)
r 1.072534113 _0_ RTR  --- 0 AODV 48 [0 ffffffff 1 800] ------- [1:255 -1:255 29 0] [0x2 2 1 [2 0] [0 4]] (REQUEST)
r 1.072534113 _4_ RTR  --- 0 AODV 48 [0 ffffffff 1 800] ------- [1:255 -1:255 29 0] [0x2 2 1 [2 0] [0 4]] (REQUEST)
r 1.072534113 _2_ RTR  --- 0 AODV 48 [0 ffffffff 1 800] ------- [1:255 -1:255 29 0] [0x2 2 1 [2 0] [0 4]] (REQUEST)
r 1.072534120 _3_ RTR  --- 0 AODV 48 [0 ffffffff 1 800] ------- [1:255 -1:255 29 0] [0x2 2 1 [2 0] [0 4]] (REQUEST)
s 1.072739105 _1_ MAC  --- 0 RTS 44 [58e 2 1 0] 
r 1.073091113 _2_ MAC  --- 0 RTS 44 [58e 2 1 0] 
s 1.073101113 _2_ MAC  --- 0 CTS 38 [454 1 0 0] 
s 1.073242253 _3_ RTR  --- 0 AODV 48 [0 ffffffff 1 800] ------- [3:255 -1:255 28 0] [0x2 3 1 [2 0] [0 4]] (REQUEST)
s 1.074739121 _1_ MAC  --- 0 RTS 44 [58e 2 1 0] 
r 1.075091130 _2_ MAC  --- 0 RTS 44 [58e 2 1 0] 
s 1.075101130 _2_ MAC  --- 0 CTS 38 [454 1 0 0] 
s 1.076963138 _3_ MAC  --- 0 AODV 106 [0 ffffffff 3 800] ------- [3:255 -1:255 28 0] [0x2 3 1 [2 0] [0 4]] (REQUEST)
r 1.077811147 _2_ MAC  --- 0 AODV 48 [0 ffffffff 3 800] ------- [3:255 -1:255 28 0] [0x2 3 1 [2 0] [0 4]] (REQUEST)
r 1.077811147 _0_ MAC  --- 0 AODV 48 [0 ffffffff 3 800] ------- [3:255 -1:255 28 0] [0x2 3 1 [2 0] [0 4]] (REQUEST)
r 1.077836147 _2_ RTR  --- 0 AODV 48 [0 ffffffff 3 800] ------- [3:255 -1:255 28 0] [0x2 3 1 [2 0] [0 4]] (REQUEST)
r 1.077836147 _0_ RTR  --- 0 AODV 48 [0 ffffffff 3 800] ------- [3:255 -1:255 28 0] [0x2 3 1 [2 0] [0 4]] (REQUEST)
s 1.079605154 _1_ MAC  --- 0 RTS 44 [58e 2 1 0] 
s 1.083945154 _1_ MAC  --- 0 RTS 44 [58e 2 1 0] 
r 1.084297164 _2_ MAC  --- 0 RTS 44 [58e 2 1 0] 
s 1.084307164 _2_ MAC  --- 0 CTS 38 [454 1 0 0] 
r 1.084611173 _1_ MAC  --- 0 CTS 38 [454 1 0 0] 
s 1.084621173 _1_ MAC  --- 1 tcp 98 [13a 2 1 800] ------- [1:0 2:1 30 2] [0 0] 0 0
r 1.085405183 _2_ MAC  --- 1 tcp 40 [13a 2 1 800] ------- [1:0 2:1 30 2] [0 0] 1 0
s 1.085415183 _2_ MAC  --- 0 ACK 38 [0 1 0 0] 
r 1.085430183 _2_ AGT  --- 1 tcp 40 [13a 2 1 800] ------- [1:0 2:1 30 2] [0 0] 1 0
s 1.085430183 _2_ AGT  --- 2 ack 40 [0 0 0 0] ------- [2:1 1:0 32 0] [0 0] 0 0
r 1.085430183 _2_ RTR  --- 2 ack 40 [0 0 0 0] ------- [2:1 1:0 32 0] [0 0] 0 0
s 1.085430183 _2_ RTR  --- 2 ack 40 [0 0 0 0] ------- [2:1 1:0 30 1] [0 0] 0 0
r 1.085719192 _1_ MAC  --- 0 ACK 38 [0 1 0 0] 
s 1.088449183 _2_ MAC  --- 0 RTS 44 [5ae 1 2 0] 
r 1.088801193 _1_ MAC  --- 0 RTS 44 [5ae 1 2 0] 
s 1.088811193 _1_ MAC  --- 0 CTS 38 [474 2 0 0] 
s 1.092769203 _2_ MAC  --- 0 RTS 44 [5ae 1 2 0] 
r 1.093121213 _1_ MAC  --- 0 RTS 44 [5ae 1 2 0] 
s 1.093131213 _1_ MAC  --- 0 CTS 38 [474 2 0 0] 
r 1.093435223 _2_ MAC  --- 0 CTS 38 [474 2 0 0] 
s 1.093445223 _2_ MAC  --- 0 AODV 102 [13a 1 2 800] ------- [2:255 1:255 30 1] [0x4 1 [2 4] 10.000000] (REPLY)
D 1.094261234 _1_ MAC  DUP 0 AODV 44 [13a 1 2 800] ------- [2:255 1:255 30 1] [0x4 1 [2 4] 10.000000] (REPLY)
s 1.094271234 _1_ MAC  --- 0 ACK 38 [0 2 0 0] 
r 1.094575244 _2_ MAC  --- 0 ACK 38 [0 2 0 0] 
s 1.094705244 _2_ MAC  --- 0 ARP 86 [0 ffffffff 2 806] ------- [REQUEST 2/2 0/4]
r 1.095393244 _4_ MAC  --- 0 ARP 28 [0 ffffffff 2 806] ------- [REQUEST 2/2 0/4]
r 1.095393244 _0_ MAC  --- 0 ARP 28 [0 ffffffff 2 806] ------- [REQUEST 2/2 0/4]
r 1.095393255 _1_ MAC  --- 0 ARP 28 [0 ffffffff 2 806] ------- [REQUEST 2/2 0/4]
r 1.095393255 _3_ MAC  --- 0 ARP 28 [0 ffffffff 2 806] ------- [REQUEST 2/2 0/4]
s 1.095568244 _4_ MAC  --- 0 RTS 44 [52e 2 4 0] 
r 1.095920244 _2_ MAC  --- 0 RTS 44 [52e 2 4 0] 
s 1.095930244 _2_ MAC  --- 0 CTS 38 [3f4 4 0 0] 
r 1.096234244 _4_ MAC  --- 0 CTS 38 [3f4 4 0 0] 
s 1.096244244 _4_ MAC  --- 0 ARP 86 [13a 2 4 806] ------- [REPLY 4/4 2/2]
r 1.096932244 _2_ MAC  --- 0 ARP 28 [13a 2 4 806] ------- [REPLY 4/4 2/2]
s 1.096942244 _2_ MAC  --- 0 ACK 38 [0 4 0 0] 
r 1.097246244 _4_ MAC  --- 0 ACK 38 [0 4 0 0] 
s 1.097756244 _2_ MAC  --- 0 RTS 44 [58e 1 2 0] 
r 1.098108255 _1_ MAC  --- 0 RTS 44 [58e 1 2 0] 
s 1.098118255 _1_ MAC  --- 0 CTS 38 [454 2 0 0] 
r 1.098422266 _2_ MAC  --- 0 CTS 38 [454 2 0 0] 
s 1.098432266 _2_ MAC  --- 2 ack 98 [13a 1 2 800] ------- [2:1 1:0 30 1] [0 0] 0 0
s 1.100164266 _2_ MAC  --- 0 RTS 44 [58e 1 2 0] 
s 1.103284266 _2_ MAC  --- 0 RTS 44 [58e 1 2 0] 
r 1.103636278 _1_ MAC  --- 0 RTS 44 [58e 1 2 0] 
s 1.103646278 _1_ MAC  --- 0 CTS 38 [454 2 0 0] 
r 1.103950290 _2_ MAC  --- 0 CTS 38 [454 2 0 0] 
s 1.103960290 _2_ MAC  --- 2 ack 98 [13a 1 2 800] ------- [2:1 1:0 30 1] [0 0] 0 0
r 1.104744301 _1_ MAC  --- 2 ack 40 [13a 1 2 800] ------- [2:1 1:0 30 1] [0 0] 1 0
s 1.104754301 _1_ MAC  --- 0 ACK 38 [0 2 0 0] 
r 1.104769301 _1_ AGT  --- 2 ack 40 [13a 1 2 800] ------- [2:1 1:0 30 1] [0 0] 1 0
s 1.104769301 _1_ AGT  --- 3 tcp 1040 [0 0 0 0] ------- [1:0 2:1 32 0] [1 0] 0 0
r 1.104769301 _1_ RTR  --- 3 tcp 1040 [0 0 0 0] ------- [1:0 2:1 32 0] [1 0] 0 0
s 1.104769301 _1_ AGT  --- 4 tcp 1040 [0 0 0 0] ------- [1:0 2:1 32 0] [2 0] 0 0
r 1.104769301 _1_ RTR  --- 4 tcp 1040 [0 0 0 0] ------- [1:0 2:1 32 0] [2 0] 0 0
s 1.104769301 _1_ RTR  --- 3 tcp 1040 [0 0 0 0] ------- [1:0 2:1 30 2] [1 0] 0 0
s 1.104769301 _1_ RTR  --- 4 tcp 1040 [0 0 0 0] ------- [1:0 2:1 30 2] [2 0] 0 0
s 1.105268301 _1_ MAC  --- 0 RTS 44 [24ce 2 1 0] 
r 1.105620313 _2_ MAC  --- 0 RTS 44 [24ce 2 1 0] 
s 1.105630313 _2_ MAC  --- 0 CTS 38 [2394 1 0 0] 
r 1.105934325 _1_ MAC  --- 0 CTS 38 [2394 1 0 0] 
s 1.105944325 _1_ MAC  --- 3 tcp 1098 [13a 2 1 800] ------- [1:0 2:1 30 2] [1 0] 0 0
s 1.115216325 _1_ MAC  --- 0 RTS 44 [24ce 2 1 0] 
r 1.115568338 _2_ MAC  --- 0 RTS 44 [24ce 2 1 0] 
s 1.115578338 _2_ MAC  --- 0 CTS 38 [2394 1 0 0] 
s 1.117816351 _1_ MAC  --- 0 RTS 44 [24ce 2 1 0] 
D 1.118168364 _2_ MAC  BSY 0 RTS 44 [24ce 2 1 0] 
s 1.119396351 _1_ MAC  --- 0 RTS 44 [24ce 2 1 0] 
s 1.123996351 _1_ MAC  --- 0 RTS 44 [24ce 2 1 0] 
D 1.124348365 _2_ MAC  BSY 0 RTS 44 [24ce 2 1 0] 
s 1.125196351 _1_ MAC  --- 0 RTS 44 [24ce 2 1 0] 
r 1.125548365 _2_ MAC  --- 0 RTS 44 [24ce 2 1 0] 
s 1.125558365 _2_ MAC  --- 0 CTS 38 [2394 1 0 0] 
s 1.135610365 _2_ MAC  --- 0 RTS 44 [58e 1 2 0] 
r 1.135962380 _1_ MAC  --- 0 RTS 44 [58e 1 2 0] 
s 1.135972380 _1_ MAC  --- 0 CTS 38 [454 2 0 0] 
r 1.136276395 _2_ MAC  --- 0 CTS 38 [454 2 0 0] 
s 1.136286395 _2_ MAC  --- 2 ack 98 [13a 1 2 800] ------- [2:1 1:0 30 1] [0 0] 0 0
s 1.143864410 _1_ MAC  --- 0 RTS 44 [24ce 2 1 0] 
s 1.146210427 _2_ MAC  --- 0 RTS 44 [58e 1 2 0] 
r 1.146562443 _1_ MAC  --- 0 RTS 44 [58e 1 2 0] 
s 1.146572443 _1_ MAC  --- 0 CTS 38 [454 2 0 0] 
r 1.146876459 _2_ MAC  --- 0 CTS 38 [454 2 0 0] 
s 1.146886459 _2_ MAC  --- 2 ack 98 [13a 1 2 800] ------- [2:1 1:0 30 1] [0 0] 0 0
D 1.147988459 _2_ RTR  CBK 2 ack 40 [13a 1 2 800] ------- [2:1 1:0 30 1] [0 0] 0 0
D 1.147988459 _2_ MAC  RET 2 ack 40 [13a 1 2 800] ------- [2:1 1:0 30 1] [0 0] 0 0
s 1.147988459 _2_ RTR  --- 0 AODV 32 [0 0 0 0] ------- [2:255 -1:255 1 0] [0x8 1 [1 0] 0.000000] (ERROR)
s 1.148038459 _2_ MAC  --- 0 RTS 44 [5ae 4 2 0] 
s 1.149158459 _2_ MAC  --- 0 RTS 44 [5ae 4 2 0] 
r 1.149510459 _4_ MAC  --- 0 RTS 44 [5ae 4 2 0] 
s 1.149520459 _4_ MAC  --- 0 CTS 38 [474 2 0 0] 
r 1.149824459 _2_ MAC  --- 0 CTS 38 [474 2 0 0] 
s 1.149834459 _2_ MAC  --- 0 AODV 102 [13a 4 2 800] ------- [2:255 0:255 30 4] [0x4 1 [2 6] 10.000000] (REPLY)
r 1.150650459 _4_ MAC  --- 0 AODV 44 [13a 4 2 800] ------- [2:255 0:255 30 4] [0x4 1 [2 6] 10.000000] (REPLY)
s 1.150660459 _4_ MAC  --- 0 ACK 38 [0 2 0 0] 
r 1.150675459 _4_ RTR  --- 0 AODV 44 [13a 4 2 800] ------- [2:255 0:255 30 4] [0x4 1 [2 6] 10.000000] (REPLY)
f 1.150675459 _4_ RTR  --- 0 AODV 44 [13a 4 2 800] ------- [2:255 0:255 29 0] [0x4 2 [2 6] 10.000000] (REPLY)
s 1.151414459 _4_ MAC  --- 0 ARP 86 [0 ffffffff 4 806] ------- [REQUEST 4/4 0/0]
s 1.154896459 _2_ MAC  --- 0 RTS 44 [5ae 4 2 0] 
r 1.155248459 _4_ MAC  --- 0 RTS 44 [5ae 4 2 0] 
s 1.155258459 _4_ MAC  --- 0 CTS 38 [474 2 0 0] 
r 1.155562459 _2_ MAC  --- 0 CTS 38 [474 2 0 0] 
s 1.155572459 _2_ MAC  --- 0 AODV 102 [13a 4 2 800] ------- [2:255 0:255 30 4] [0x4 1 [2 6] 10.000000] (REPLY)
D 1.156388459 _4_ MAC  DUP 0 AODV 44 [13a 4 2 800] ------- [2:255 0:255 30 4] [0x4 1 [2 6] 10.000000] (REPLY)
s 1.156398459 _4_ MAC  --- 0 ACK 38 [0 2 0 0] 
r 1.156702459 _2_ MAC  --- 0 ACK 38 [0 2 0 0] 
s 1.157232459 _2_ MAC  --- 0 AODV 90 [0 ffffffff 2 800] ------- [2:255 -1:255 1 0] [0x8 1 [1 0] 0.000000] (ERROR)
r 1.157952459 _0_ MAC  --- 0 AODV 32 [0 ffffffff 2 800] ------- [2:255 -1:255 1 0] [0x8 1 [1 0] 0.000000] (ERROR)
r 1.157952459 _4_ MAC  --- 0 AODV 32 [0 ffffffff 2 800] ------- [2:255 -1:255 1 0] [0x8 1 [1 0] 0.000000] (ERROR)
r 1.157952477 _1_ MAC  --- 0 AODV 32 [0 ffffffff 2 800] ------- [2:255 -1:255 1 0] [0x8 1 [1 0] 0.000000] (ERROR)
r 1.157952477 _3_ MAC  --- 0 AODV 32 [0 ffffffff 2 800] ------- [2:255 -1:255 1 0] [0x8 1 [1 0] 0.000000] (ERROR)
r 1.157977459 _0_ RTR  --- 0 AODV 32 [0 ffffffff 2 800] ------- [2:255 -1:255 1 0] [0x8 1 [1 0] 0.000000] (ERROR)
r 1.157977459 _4_ RTR  --- 0 AODV 32 [0 ffffffff 2 800] ------- [2:255 -1:255 1 0] [0x8 1 [1 0] 0.000000] (ERROR)
r 1.157977477 _1_ RTR  --- 0 AODV 32 [0 ffffffff 2 800] ------- [2:255 -1:255 1 0] [0x8 1 [1 0] 0.000000] (ERROR)
r 1.157977477 _3_ RTR  --- 0 AODV 32 [0 ffffffff 2 800] ------- [2:255 -1:255 1 0] [0x8 1 [1 0] 0.000000] (ERROR)
s 1.164942477 _1_ MAC  --- 0 RTS 44 [24ce 2 1 0] 
r 1.165294496 _2_ MAC  --- 0 RTS 44 [24ce 2 1 0] 
s 1.165304496 _2_ MAC  --- 0 CTS 38 [2394 1 0 0] 
r 1.165608514 _1_ MAC  --- 0 CTS 38 [2394 1 0 0] 
s 1.165618514 _1_ MAC  --- 3 tcp 1098 [13a 2 1 800] ------- [1:0 2:1 30 2] [1 0] 0 0
r 1.174402533 _2_ MAC  --- 3 tcp 1040 [13a 2 1 800] ------- [1:0 2:1 30 2] [1 0] 1 0
s 1.174412533 _2_ MAC  --- 0 ACK 38 [0 1 0 0] 
r 1.174427533 _2_ AGT  --- 3 tcp 1040 [13a 2 1 800] ------- [1:0 2:1 30 2] [1 0] 1 0
s 1.174427533 _2_ AGT  --- 5 ack 40 [0 0 0 0] ------- [2:1 1:0 32 0] [1 0] 0 0
r 1.174427533 _2_ RTR  --- 5 ack 40 [0 0 0 0] ------- [2:1 1:0 32 0] [1 0] 0 0
s 1.174427533 _2_ RTR  --- 0 AODV 48 [0 0 0 0] ------- [2:255 -1:255 3 0] [0x2 1 1 [1 5] [2 10]] (REQUEST)
r 1.174716552 _1_ MAC  --- 0 ACK 38 [0 1 0 0] 
s 1.175206552 _1_ MAC  --- 0 RTS 44 [24ce 2 1 0] 
s 1.176092572 _2_ MAC  --- 0 AODV 106 [0 ffffffff 2 800] ------- [2:255 -1:255 3 0] [0x2 1 1 [1 5] [2 10]] (REQUEST)
r 1.176940572 _0_ MAC  --- 0 AODV 48 [0 ffffffff 2 800] ------- [2:255 -1:255 3 0] [0x2 1 1 [1 5] [2 10]] (REQUEST)
r 1.176940572 _4_ MAC  --- 0 AODV 48 [0 ffffffff 2 800] ------- [2:255 -1:255 3 0] [0x2 1 1 [1 5] [2 10]] (REQUEST)
r 1.176940592 _1_ MAC  --- 0 AODV 48 [0 ffffffff 2 800] ------- [2:255 -1:255 3 0] [0x2 1 1 [1 5] [2 10]] (REQUEST)
r 1.176940592 _3_ MAC  --- 0 AODV 48 [0 ffffffff 2 800] ------- [2:255 -1:255 3 0] [0x2 1 1 [1 5] [2 10]] (REQUEST)
r 1.176965572 _0_ RTR  --- 0 AODV 48 [0 ffffffff 2 800] ------- [2:255 -1:255 3 0] [0x2 1 1 [1 5] [2 10]] (REQUEST)
r 1.176965572 _4_ RTR  --- 0 AODV 48 [0 ffffffff 2 800] ------- [2:255 -1:255 3 0] [0x2 1 1 [1 5] [2 10]] (REQUEST)
s 1.176965572 _0_ RTR  --- 0 tcp 40 [0 0 0 0] ------- [0:0 2:0 30 2] [0 0] 0 0
r 1.176965592 _1_ RTR  --- 0 AODV 48 [0 ffffffff 2 800] ------- [2:255 -1:255 3 0] [0x2 1 1 [1 5] [2 10]] (REQUEST)
r 1.176965592 _3_ RTR  --- 0 AODV 48 [0 ffffffff 2 800] ------- [2:255 -1:255 3 0] [0x2 1 1 [1 5] [2 10]] (REQUEST)
s 1.176965592 _1_ RTR  --- 0 AODV 44 [0 0 0 0] ------- [1:255 2:255 30 2] [0x4 1 [1 6] 10.000000] (REPLY)
s 1.177170592 _1_ MAC  --- 0 RTS 44 [24ce 2 1 0] 
s 1.179297425 _0_ RTR  --- 0 AODV 48 [0 ffffffff 2 800] ------- [0:255 -1:255 2 0] [0x2 2 1 [1 5] [2 10]] (REQUEST)
s 1.180250592 _1_ MAC  --- 0 RTS 44 [24ce 2 1 0] 
r 1.180602612 _2_ MAC  --- 0 RTS 44 [24ce 2 1 0] 
s 1.180612612 _2_ MAC  --- 0 CTS 38 [2394 1 0 0] 
r 1.180916632 _1_ MAC  --- 0 CTS 38 [2394 1 0 0] 
s 1.180926632 _1_ MAC  --- 4 tcp 1098 [13a 2 1 800] ------- [1:0 2:1 30 2] [2 0] 0 0
s 1.182291592 _3_ RTR  --- 0 AODV 48 [0 ffffffff 2 800] ------- [3:255 -1:255 2 0] [0x2 2 1 [1 5] [2 10]] (REQUEST)
s 1.185143907 _4_ RTR  --- 0 AODV 48 [0 ffffffff 2 800] ------- [4:255 -1:255 2 0] [0x2 2 1 [1 5] [2 10]] (REQUEST)
r 1.189710652 _2_ MAC  --- 4 tcp 1040 [13a 2 1 800] ------- [1:0 2:1 30 2] [2 0] 1 0
s 1.189720652 _2_ MAC  --- 0 ACK 38 [0 1 0 0] 
r 1.189735652 _2_ AGT  --- 4 tcp 1040 [13a 2 1 800] ------- [1:0 2:1 30 2] [2 0] 1 0
s 1.189735652 _2_ AGT  --- 6 ack 40 [0 0 0 0] ------- [2:1 1:0 32 0] [2 0] 0 0
r 1.189735652 _2_ RTR  --- 6 ack 40 [0 0 0 0] ------- [2:1 1:0 32 0] [2 0] 0 0
r 1.190024674 _1_ MAC  --- 0 ACK 38 [0 1 0 0] 
s 1.190274674 _3_ MAC  --- 0 AODV 106 [0 ffffffff 3 800] ------- [3:255 -1:255 2 0] [0x2 2 1 [1 5] [2 10]] (REQUEST)
s 1.191776714 _1_ MAC  --- 0 RTS 44 [5ae 2 1 0] 
s 1.193056714 _1_ MAC  --- 0 RTS 44 [5ae 2 1 0] 
r 1.193408735 _2_ MAC  --- 0 RTS 44 [5ae 2 1 0] 
s 1.193418735 _2_ MAC  --- 0 CTS 38 [474 1 0 0] 
r 1.193722757 _1_ MAC  --- 0 CTS 38 [474 1 0 0] 
s 1.193732757 _1_ MAC  --- 0 AODV 102 [13a 2 1 800] ------- [1:255 2:255 30 2] [0x4 1 [1 6] 10.000000] (REPLY)
r 1.194548779 _2_ MAC  --- 0 AODV 44 [13a 2 1 800] ------- [1:255 2:255 30 2] [0x4 1 [1 6] 10.000000] (REPLY)
s 1.194558779 _2_ MAC  --- 0 ACK 38 [0 1 0 0] 
r 1.194573779 _2_ RTR  --- 0 AODV 44 [13a 2 1 800] ------- [1:255 2:255 30 2] [0x4 1 [1 6] 10.000000] (REPLY)
s 1.194573779 _2_ RTR  --- 5 ack 40 [0 0 0 0] ------- [2:1 1:0 30 1] [1 0] 0 0
s 1.195192779 _2_ MAC  --- 0 RTS 44 [58e 1 2 0] 
r 1.195544801 _1_ MAC  --- 0 RTS 44 [58e 1 2 0] 
s 1.195554801 _1_ MAC  --- 0 CTS 38 [454 2 0 0] 
s 1.196992822 _2_ MAC  --- 0 RTS 44 [58e 1 2 0] 
r 1.197344845 _1_ MAC  --- 0 RTS 44 [58e 1 2 0] 
s 1.197354845 _1_ MAC  --- 0 CTS 38 [454 2 0 0] 
r 1.197658867 _2_ MAC  --- 0 CTS 38 [454 2 0 0] 
s 1.197668867 _2_ MAC  --- 5 ack 98 [13a 1 2 800] ------- [2:1 1:0 30 1] [1 0] 0 0
r 1.198452889 _1_ MAC  --- 5 ack 40 [13a 1 2 800] ------- [2:1 1:0 30 1] [1 0] 1 0
s 1.198462889 _1_ MAC  --- 0 ACK 38 [0 2 0 0] 
r 1.198477889 _1_ AGT  --- 5 ack 40 [13a 1 2 800] ------- [2:1 1:0 30 1] [1 0] 1 0
s 1.198477889 _1_ AGT  --- 7 tcp 1040 [0 0 0 0] ------- [1:0 2:1 32 0] [3 0] 0 0
r 1.198477889 _1_ RTR  --- 7 tcp 1040 [0 0 0 0] ------- [1:0 2:1 32 0] [3 0] 0 0
s 1.198477889 _1_ AGT  --- 8 tcp 1040 [0 0 0 0] ------- [1:0 2:1 32 0] [4 0] 0 0
r 1.198477889 _1_ RTR  --- 8 tcp 1040 [0 0 0 0] ------- [1:0 2:1 32 0] [4 0] 0 0
s 1.198477889 _1_ RTR  --- 7 tcp 1040 [0 0 0 0] ------- [1:0 2:1 30 2] [3 0] 0 0
s 1.198477889 _1_ RTR  --- 8 tcp 1040 [0 0 0 0] ------- [1:0 2:1 30 2] [4 0] 0 0
r 1.198766911 _2_ MAC  --- 0 ACK 38 [0 2 0 0] 
s 1.199026867 _0_ MAC  --- 0 RTS 44 [58e 2 0 0] 
r 1.199378867 _2_ MAC  --- 0 RTS 44 [58e 2 0 0] 
s 1.199388867 _2_ MAC  --- 0 CTS 38 [454 0 0 0] 
s 1.200946867 _0_ MAC  --- 0 RTS 44 [58e 2 0 0] 
s 1.201732867 _4_ MAC  --- 0 AODV 106 [0 ffffffff 4 800] ------- [4:255 -1:255 2 0] [0x2 2 1 [1 5] [2 10]] (REQUEST)
s 1.203014889 _1_ MAC  --- 0 RTS 44 [5ae 2 1 0] 
r 1.203366912 _2_ MAC  --- 0 RTS 44 [5ae 2 1 0] 
s 1.203376912 _2_ MAC  --- 0 CTS 38 [474 1 0 0] 
s 1.204573779 _2_ RTR  --- 6 ack 40 [0 0 0 0] ------- [2:1 1:0 30 1] [2 0] 0 0
s 1.204828779 _2_ MAC  --- 0 RTS 44 [58e 1 2 0] 
r 1.205180802 _1_ MAC  --- 0 RTS 44 [58e 1 2 0] 
s 1.205190802 _1_ MAC  --- 0 CTS 38 [454 2 0 0] 
r 1.205494825 _2_ MAC  --- 0 CTS 38 [454 2 0 0] 
s 1.205504825 _2_ MAC  --- 6 ack 98 [13a 1 2 800] ------- [2:1 1:0 30 1] [2 0] 0 0
r 1.206288848 _1_ MAC  --- 6 ack 40 [13a 1 2 800] ------- [2:1 1:0 30 1] [2 0] 1 0
s 1.206298848 _1_ MAC  --- 0 ACK 38 [0 2 0 0] 
r 1.206313848 _1_ AGT  --- 6 ack 40 [13a 1 2 800] ------- [2:1 1:0 30 1] [2 0] 1 0
s 1.206313848 _1_ AGT  --- 9 tcp 1040 [0 0 0 0] ------- [1:0 2:1 32 0] [5 0] 0 0
r 1.206313848 _1_ RTR  --- 9 tcp 1040 [0 0 0 0] ------- [1:0 2:1 32 0] [5 0] 0 0
s 1.206313848 _1_ AGT  --- 10 tcp 1040 [0 0 0 0] ------- [1:0 2:1 32 0] [6 0] 0 0
r 1.206313848 _1_ RTR  --- 10 tcp 1040 [0 0 0 0] ------- [1:0 2:1 32 0] [6 0] 0 0
s 1.206313848 _1_ RTR  --- 9 tcp 1040 [0 0 0 0] ------- [1:0 2:1 30 2] [5 0] 0 0
s 1.206313848 _1_ RTR  --- 10 tcp 1040 [0 0 0 0] ------- [1:0 2:1 30 2] [6 0] 0 0
r 1.206602871 _2_ MAC  --- 0 ACK 38 [0 2 0 0] 
s 1.206832871 _0_ MAC  --- 0 RTS 44 [58e 2 0 0] 
r 1.207184871 _2_ MAC  --- 0 RTS 44 [58e 2 0 0] 
s 1.207194871 _2_ MAC  --- 0 CTS 38 [454 0 0 0] 
r 1.207498871 _0_ MAC  --- 0 CTS 38 [454 0 0 0] 
s 1.207508871 _0_ MAC  --- 0 tcp 98 [13a 2 0 800] ------- [0:0 2:0 30 2] [0 0] 0 0
r 1.208292871 _2_ MAC  --- 0 tcp 40 [13a 2 0 800] ------- [0:0 2:0 30 2] [0 0] 1 0
s 1.208302871 _2_ MAC  --- 0 ACK 38 [0 0 0 0] 
r 1.208317871 _2_ AGT  --- 0 tcp 40 [13a 2 0 800] ------- [0:0 2:0 30 2] [0 0] 1 0
s 1.208317871 _2_ AGT  --- 11 ack 40 [0 0 0 0] ------- [2:0 0:0 32 0] [0 0] 0 0
r 1.208317871 _2_ RTR  --- 11 ack 40 [0 0 0 0] ------- [2:0 0:0 32 0] [0 0] 0 0
s 1.208317871 _2_ RTR  --- 11 ack 40 [0 0 0 0] ------- [2:0 0:0 30 4] [0 0] 0 0
s 1.209056871 _2_ MAC  --- 0 RTS 44 [58e 4 2 0] 
r 1.209408871 _4_ MAC  --- 0 RTS 44 [58e 4 2 0] 
s 1.209418871 _4_ MAC  --- 0 CTS 38 [454 2 0 0] 
r 1.209722871 _2_ MAC  --- 0 CTS 38 [454 2 0 0] 
s 1.209732871 _2_ MAC  --- 11 ack 98 [13a 4 2 800] ------- [2:0 0:0 30 4] [0 0] 0 0
r 1.210516871 _4_ MAC  --- 11 ack 40 [13a 4 2 800] ------- [2:0 0:0 30 4] [0 0] 1 0
s 1.210526871 _4_ MAC  --- 0 ACK 38 [0 2 0 0] 
r 1.210541871 _4_ RTR  --- 11 ack 40 [13a 4 2 800] ------- [2:0 0:0 30 4] [0 0] 1 0
f 1.210541871 _4_ RTR  --- 11 ack 40 [13a 4 2 800] ------- [2:0 0:0 29 0] [0 0] 1 0
D 1.210541871 _4_ IFQ  ARP 0 AODV 44 [13a 4 4 800] ------- [2:255 0:255 29 0] [0x4 2 [2 6] 10.000000] (REPLY)
r 1.210830871 _2_ MAC  --- 0 ACK 38 [0 2 0 0] 
s 1.210960871 _4_ MAC  --- 0 ARP 86 [0 ffffffff 4 806] ------- [REQUEST 4/4 0/0]
r 1.211648871 _0_ MAC  --- 0 ARP 28 [0 ffffffff 4 806] ------- [REQUEST 4/4 0/0]
r 1.211648894 _3_ MAC  --- 0 ARP 28 [0 ffffffff 4 806] ------- [REQUEST 4/4 0/0]
s 1.212182894 _1_ MAC  --- 0 RTS 44 [5ae 2 1 0] 
s 1.217248918 _0_ MAC  --- 0 RTS 44 [58e 2 0 0] 
r 1.217600918 _2_ MAC  --- 0 RTS 44 [58e 2 0 0] 
s 1.217610918 _2_ MAC  --- 0 CTS 38 [454 0 0 0] 
s 1.218528943 _1_ MAC  --- 0 RTS 44 [5ae 2 1 0] 
r 1.218880967 _2_ MAC  --- 0 RTS 44 [5ae 2 1 0] 
s 1.218890967 _2_ MAC  --- 0 CTS 38 [474 1 0 0] 
s 1.230044967 _0_ MAC  --- 0 RTS 44 [58e 2 0 0] 
r 1.230396967 _2_ MAC  --- 0 RTS 44 [58e 2 0 0] 
s 1.230406967 _2_ MAC  --- 0 CTS 38 [454 0 0 0] 
r 1.230710967 _0_ MAC  --- 0 CTS 38 [454 0 0 0] 
s 1.230720967 _0_ MAC  --- 0 tcp 98 [13a 2 0 800] ------- [0:0 2:0 30 2] [0 0] 0 0
s 1.236638993 _1_ MAC  --- 0 RTS 44 [5ae 2 1 0] 
s 1.242758993 _1_ MAC  --- 0 RTS 44 [5ae 2 1 0] 
r 1.243111020 _2_ MAC  --- 0 RTS 44 [5ae 2 1 0] 
s 1.243121020 _2_ MAC  --- 0 CTS 38 [474 1 0 0] 
r 1.243425047 _1_ MAC  --- 0 CTS 38 [474 1 0 0] 
s 1.243435047 _1_ MAC  --- 0 AODV 102 [13a 2 1 800] ------- [1:255 2:255 30 2] [0x4 1 [1 6] 10.000000] (REPLY)
D 1.244251075 _2_ MAC  DUP 0 AODV 44 [13a 2 1 800] ------- [1:255 2:255 30 2] [0x4 1 [1 6] 10.000000] (REPLY)
s 1.244261075 _2_ MAC  --- 0 ACK 38 [0 1 0 0] 
s 1.254179075 _0_ MAC  --- 0 RTS 44 [58e 2 0 0] 
s 1.257625103 _1_ MAC  --- 0 RTS 44 [5ae 2 1 0] 
r 1.257977132 _2_ MAC  --- 0 RTS 44 [5ae 2 1 0] 